Program Version,EnergyPlus, Version 9.6.0-f420c06a69, YMD=2022.02.10 22:47
1,5,Environment Title[],Latitude[deg],Longitude[deg],Time Zone[],Elevation[m]
2,8,Day of Simulation[],Month[],Day of Month[],DST Indicator[1=yes 0=no],Hour[],StartMinute[],EndMinute[],DayType
3,5,Cumulative Day of Simulation[],Month[],Day of Month[],DST Indicator[1=yes 0=no],DayType  ! When Daily Report Variables Requested
4,2,Cumulative Days of Simulation[],Month[]  ! When Monthly Report Variables Requested
5,1,Cumulative Days of Simulation[] ! When Run Period Report Variables Requested
6,1,Calendar Year of Simulation[] ! When Annual Report Variables Requested
7,1,WALL EXTERIOR,Surface Outside Face Incident Solar Radiation Rate per Area [W/m2] !TimeStep
8,1,WALL EXTERIOR,Surface Outside Face Outdoor Air Drybulb Temperature [C] !TimeStep
9,1,WALL EXTERIOR,Surface Outside Face Net Thermal Radiation Heat Gain Rate [W] !TimeStep
10,1,WALL EXTERIOR,Surface Outside Face Solar Radiation Heat Gain Rate per Area [W/m2] !TimeStep
11,1,INTERIOR SPACE,Zone Mean Air Temperature [C] !TimeStep
End of Data Dictionary
1,RUN PERIOD 1, -33.38, -70.78,  -4.00, 476.00
2,1, 1, 1, 0, 1, 0.00, 3.00,Sunday
7,0.0
8,15.085
9,-2207.9353584033624
10,0.0
11,25.443430629092394
2,1, 1, 1, 0, 1, 3.00, 6.00,Sunday
7,0.0
8,15.17
9,-2179.483537815994
10,0.0
11,25.41432033112625
2,1, 1, 1, 0, 1, 6.00, 9.00,Sunday
7,0.0
8,15.254999999999999
9,-2152.2974076707974
10,0.0
11,25.384897064861367
2,1, 1, 1, 0, 1, 9.00,12.00,Sunday
7,0.0
8,15.34
9,-2126.166830283829
10,0.0
11,25.355169618640094
2,1, 1, 1, 0, 1,12.00,15.00,Sunday
7,0.0
8,15.425
9,-2100.944370483199
10,0.0
11,25.32514658744864
2,1, 1, 1, 0, 1,15.00,18.00,Sunday
7,0.0
8,15.51
9,-2076.5200584441714
10,0.0
11,25.294836331319072
2,1, 1, 1, 0, 1,18.00,21.00,Sunday
7,0.0
8,15.594999999999999
9,-2052.808115997262
10,0.0
11,25.264246979579713
2,1, 1, 1, 0, 1,21.00,24.00,Sunday
7,0.0
8,15.68
9,-2029.7394338757458
10,0.0
11,25.233386451895193
2,1, 1, 1, 0, 1,24.00,27.00,Sunday
7,0.0
8,15.765
9,-2007.2569545339338
10,0.0
11,25.202262487300302
2,1, 1, 1, 0, 1,27.00,30.00,Sunday
7,0.0
8,15.85
9,-1985.3126603794087
10,0.0
11,25.17088268166981
2,1, 1, 1, 0, 1,30.00,33.00,Sunday
7,0.0
8,15.934999999999999
9,-1963.8655139270456
10,0.0
11,25.139254534997924
2,1, 1, 1, 0, 1,33.00,36.00,Sunday
7,0.0
8,16.02
9,-1942.8799949389802
10,0.0
11,25.10738550776082
2,1, 1, 1, 0, 1,36.00,39.00,Sunday
7,0.0
8,16.105
9,-1922.3250292441408
10,0.0
11,25.075283083551472
2,1, 1, 1, 0, 1,39.00,42.00,Sunday
7,0.0
8,16.19
9,-1902.1731842165227
10,0.0
11,25.042954834081982
2,1, 1, 1, 0, 1,42.00,45.00,Sunday
7,0.0
8,16.275
9,-1882.400051474909
10,0.0
11,25.010408482509817
2,1, 1, 1, 0, 1,45.00,48.00,Sunday
7,0.0
8,16.36
9,-1862.9837645008101
10,0.0
11,24.977651961539436
2,1, 1, 1, 0, 1,48.00,51.00,Sunday
7,0.0
8,16.445
9,-1843.9046156778338
10,0.0
11,24.944693463567653
2,1, 1, 1, 0, 1,51.00,54.00,Sunday
7,0.0
8,16.529999999999998
9,-1825.1447480276588
10,0.0
11,24.911541481055313
2,1, 1, 1, 0, 1,54.00,57.00,Sunday
7,0.0
8,16.615
9,-1806.687904026306
10,0.0
11,24.878204836177353
2,1, 1, 1, 0, 1,57.00,60.00,Sunday
7,0.0
8,16.7
9,-1788.5192186977388
10,0.0
11,24.84469269954923
2,1, 1, 1, 0, 2, 0.00, 3.00,Sunday
7,0.0
8,16.619999999999997
9,-1807.829005395612
10,0.0
11,24.81101636984816
2,1, 1, 1, 0, 2, 3.00, 6.00,Sunday
7,0.0
8,16.54
9,-1825.1937411881072
10,0.0
11,24.777186664942377
2,1, 1, 1, 0, 2, 6.00, 9.00,Sunday
7,0.0
8,16.459999999999997
9,-1841.2920157566741
10,0.0
11,24.743213903111073
2,1, 1, 1, 0, 2, 9.00,12.00,Sunday
7,0.0
8,16.38
9,-1856.3695331934914
10,0.0
11,24.709108373559715
2,1, 1, 1, 0, 2,12.00,15.00,Sunday
7,0.0
8,16.299999999999997
9,-1870.5958466604302
10,0.0
11,24.67488062212998
2,1, 1, 1, 0, 2,15.00,18.00,Sunday
7,0.0
8,16.22
9,-1884.0953507168513
10,0.0
11,24.640541522019628
2,1, 1, 1, 0, 2,18.00,21.00,Sunday
7,0.0
8,16.14
9,-1896.9634311434345
10,0.0
11,24.606102237885118
2,1, 1, 1, 0, 2,21.00,24.00,Sunday
7,0.0
8,16.06
9,-1909.2756129092484
10,0.0
11,24.571574156746895
2,1, 1, 1, 0, 2,24.00,27.00,Sunday
7,0.0
8,15.98
9,-1921.0931660731517
10,0.0
11,24.536968810609356
2,1, 1, 1, 0, 2,27.00,30.00,Sunday
7,0.0
8,15.899999999999999
9,-1932.4667539443371
10,0.0
11,24.5022977924171
2,1, 1, 1, 0, 2,30.00,33.00,Sunday
7,0.0
8,15.819999999999999
9,-1943.4389207458105
10,0.0
11,24.467572662641594
2,1, 1, 1, 0, 2,33.00,36.00,Sunday
7,0.0
8,15.739999999999998
9,-1954.0458520633317
10,0.0
11,24.432804846566356
2,1, 1, 1, 0, 2,36.00,39.00,Sunday
7,0.0
8,15.66
9,-1964.3186587539615
10,0.0
11,24.398005525579933
2,1, 1, 1, 0, 2,39.00,42.00,Sunday
7,0.0
8,15.579999999999998
9,-1974.2843369414204
10,0.0
11,24.36318552748004
2,1, 1, 1, 0, 2,42.00,45.00,Sunday
7,0.0
8,15.5
9,-1983.9665010327517
10,0.0
11,24.32835522101226
2,1, 1, 1, 0, 2,45.00,48.00,Sunday
7,0.0
8,15.419999999999998
9,-1993.3859535366366
10,0.0
11,24.29352441918453
2,1, 1, 1, 0, 2,48.00,51.00,Sunday
7,0.0
8,15.34
9,-2002.5611349275032
10,0.0
11,24.258702294805758
2,1, 1, 1, 0, 2,51.00,54.00,Sunday
7,0.0
8,15.26
9,-2011.5084836415801
10,0.0
11,24.2238973105035
2,1, 1, 1, 0, 2,54.00,57.00,Sunday
7,0.0
8,15.18
9,-2020.2427276115443
10,0.0
11,24.189117164358304
2,1, 1, 1, 0, 2,57.00,60.00,Sunday
7,0.0
8,15.1
9,-2028.7771228720997
10,0.0
11,24.154368751340957
2,1, 1, 1, 0, 3, 0.00, 3.00,Sunday
7,0.0
8,15.034999999999998
9,-2032.5734385194542
10,0.0
11,24.11965723048877
2,1, 1, 1, 0, 3, 3.00, 6.00,Sunday
7,0.0
8,14.97
9,-2036.4178746337577
10,0.0
11,24.084987364505132
2,1, 1, 1, 0, 3, 6.00, 9.00,Sunday
7,0.0
8,14.905
9,-2040.2476683255263
10,0.0
11,24.050363522311144
2,1, 1, 1, 0, 3, 9.00,12.00,Sunday
7,0.0
8,14.84
9,-2044.0463457342448
10,0.0
11,24.01578943772272
2,1, 1, 1, 0, 3,12.00,15.00,Sunday
7,0.0
8,14.774999999999999
9,-2047.8043101270637
10,0.0
11,23.98126807197843
2,1, 1, 1, 0, 3,15.00,18.00,Sunday
7,0.0
8,14.709999999999997
9,-2051.5158502331333
10,0.0
11,23.946801592905736
2,1, 1, 1, 0, 3,18.00,21.00,Sunday
7,0.0
8,14.645
9,-2055.177600337072
10,0.0
11,23.91239141174455
2,1, 1, 1, 0, 3,21.00,24.00,Sunday
7,0.0
8,14.579999999999998
9,-2058.7876884777816
10,0.0
11,23.878038236910676
2,1, 1, 1, 0, 3,24.00,27.00,Sunday
7,0.0
8,14.515
9,-2062.3452294020126
10,0.0
11,23.84374212945856
2,1, 1, 1, 0, 3,27.00,30.00,Sunday
7,0.0
8,14.45
9,-2065.8500057441975
10,0.0
11,23.809502557791472
2,1, 1, 1, 0, 3,30.00,33.00,Sunday
7,0.0
8,14.385
9,-2069.3022590961427
10,0.0
11,23.775318452424386
2,1, 1, 1, 0, 3,33.00,36.00,Sunday
7,0.0
8,14.32
9,-2072.702548687188
10,0.0
11,23.74118826120432
2,1, 1, 1, 0, 3,36.00,39.00,Sunday
7,0.0
8,14.254999999999999
9,-2076.051653424325
10,0.0
11,23.707110004516366
2,1, 1, 1, 0, 3,39.00,42.00,Sunday
7,0.0
8,14.190000000000001
9,-2079.3505026810562
10,0.0
11,23.67308132956494
2,1, 1, 1, 0, 3,42.00,45.00,Sunday
7,0.0
8,14.125000000000002
9,-2082.60012667046
10,0.0
11,23.639099562786008
2,1, 1, 1, 0, 3,45.00,48.00,Sunday
7,0.0
8,14.06
9,-2085.80162045944
10,0.0
11,23.605161759605743
2,1, 1, 1, 0, 3,48.00,51.00,Sunday
7,0.0
8,13.995000000000001
9,-2088.9561176621087
10,0.0
11,23.57126475097252
2,1, 1, 1, 0, 3,51.00,54.00,Sunday
7,0.0
8,13.930000000000001
9,-2092.0647711073602
10,0.0
11,23.537405186290766
2,1, 1, 1, 0, 3,54.00,57.00,Sunday
7,0.0
8,13.865
9,-2095.12873859712
10,0.0
11,23.503579572559275
2,1, 1, 1, 0, 3,57.00,60.00,Sunday
7,0.0
8,13.8
9,-2098.1491724203242
10,0.0
11,23.469784309659662
2,1, 1, 1, 0, 4, 0.00, 3.00,Sunday
7,0.0
8,13.745
9,-2098.989252857296
10,0.0
11,23.43601572185341
2,1, 1, 1, 0, 4, 3.00, 6.00,Sunday
7,0.0
8,13.690000000000001
9,-2099.9228339028723
10,0.0
11,23.40227008563084
2,1, 1, 1, 0, 4, 6.00, 9.00,Sunday
7,0.0
8,13.635
9,-2100.9068416607665
10,0.0
11,23.368543654115328
2,1, 1, 1, 0, 4, 9.00,12.00,Sunday
7,0.0
8,13.580000000000002
9,-2101.927173565793
10,0.0
11,23.33483267826764
2,1, 1, 1, 0, 4,12.00,15.00,Sunday
7,0.0
8,13.525000000000002
9,-2102.974241559668
10,0.0
11,23.301133425175816
2,1, 1, 1, 0, 4,15.00,18.00,Sunday
7,0.0
8,13.469999999999999
9,-2104.0411415942044
10,0.0
11,23.26744219377689
2,1, 1, 1, 0, 4,18.00,21.00,Sunday
7,0.0
8,13.415
9,-2105.1226922074966
10,0.0
11,23.233755328433897
2,1, 1, 1, 0, 4,21.00,24.00,Sunday
7,0.0
8,13.36
9,-2106.2148893810995
10,0.0
11,23.20006923084354
2,1, 1, 1, 0, 4,24.00,27.00,Sunday
7,0.0
8,13.305
9,-2107.3145719805852
10,0.0
11,23.16638037073173
2,1, 1, 1, 0, 4,27.00,30.00,Sunday
7,0.0
8,13.25
9,-2108.4192036784084
10,0.0
11,23.132685295694706
2,1, 1, 1, 0, 4,30.00,33.00,Sunday
7,0.0
8,13.195
9,-2109.526724013264
10,0.0
11,23.09898064039319
2,1, 1, 1, 0, 4,33.00,36.00,Sunday
7,0.0
8,13.14
9,-2110.635442844503
10,0.0
11,23.06526313515154
2,1, 1, 1, 0, 4,36.00,39.00,Sunday
7,0.0
8,13.084999999999999
9,-2111.7439632971477
10,0.0
11,23.031529613892577
2,1, 1, 1, 0, 4,39.00,42.00,Sunday
7,0.0
8,13.03
9,-2112.851124111826
10,0.0
11,22.997777021269098
2,1, 1, 1, 0, 4,42.00,45.00,Sunday
7,0.0
8,12.974999999999998
9,-2113.9559556213026
10,0.0
11,22.96400241883499
2,1, 1, 1, 0, 4,45.00,48.00,Sunday
7,0.0
8,12.92
9,-2115.0576455448854
10,0.0
11,22.9302029901196
2,1, 1, 1, 0, 4,48.00,51.00,Sunday
7,0.0
8,12.865
9,-2116.1555120137928
10,0.0
11,22.89637604451258
2,1, 1, 1, 0, 4,51.00,54.00,Sunday
7,0.0
8,12.809999999999999
9,-2117.2489820240958
10,0.0
11,22.86251901991952
2,1, 1, 1, 0, 4,54.00,57.00,Sunday
7,0.0
8,12.755
9,-2118.3375740313327
10,0.0
11,22.828629484200086
2,1, 1, 1, 0, 4,57.00,60.00,Sunday
7,0.0
8,12.7
9,-2119.420883752004
10,0.0
11,22.794705135444442
2,1, 1, 1, 0, 5, 0.00, 3.00,Sunday
7,0.0
8,12.649999999999999
9,-2119.8766888664964
10,0.0
11,22.760743801177796
2,1, 1, 1, 0, 5, 3.00, 6.00,Sunday
7,0.0
8,12.6
9,-2120.3862573397523
10,0.0
11,22.72674343660578
2,1, 1, 1, 0, 5, 6.00, 9.00,Sunday
7,0.0
8,12.55
9,-2120.9296662883753
10,0.0
11,22.692702122026994
2,1, 1, 1, 0, 5, 9.00,12.00,Sunday
7,0.0
8,12.5
9,-2121.5000327345283
10,0.0
11,22.658618059545265
2,1, 1, 1, 0, 5,12.00,15.00,Sunday
7,0.0
8,12.45
9,-2122.092511246537
10,0.0
11,22.62448956922139
2,1, 1, 1, 0, 5,15.00,18.00,Sunday
7,0.0
8,12.399999999999999
9,-2122.7034829373715
10,0.0
11,22.590315084821572
2,1, 1, 1, 0, 5,18.00,21.00,Sunday
7,0.0
8,12.349999999999998
9,-2123.3301275937083
10,0.0
11,22.556093149345816
2,1, 1, 1, 0, 5,21.00,24.00,Sunday
7,0.0
8,12.299999999999999
9,-2123.970179857872
10,0.0
11,22.521822410535474
2,1, 1, 1, 0, 5,24.00,27.00,Sunday
7,0.0
8,12.25
9,-2124.621778650706
10,0.0
11,22.48750161654551
2,1, 1, 1, 0, 5,27.00,30.00,Sunday
7,0.0
8,12.2
9,-2125.2833682803725
10,0.0
11,22.453129611917973
2,1, 1, 1, 0, 5,30.00,33.00,Sunday
7,0.0
8,12.149999999999999
9,-2125.9536303168916
10,0.0
11,22.41870533392267
2,1, 1, 1, 0, 5,33.00,36.00,Sunday
7,0.0
8,12.1
9,-2126.63143484714
10,0.0
11,22.384227809259375
2,1, 1, 1, 0, 5,36.00,39.00,Sunday
7,0.0
8,12.049999999999999
9,-2127.3158045094788
10,0.0
11,22.34969615105981
2,1, 1, 1, 0, 5,39.00,42.00,Sunday
7,0.0
8,12.0
9,-2128.0058872769782
10,0.0
11,22.31510955609554
2,1, 1, 1, 0, 5,42.00,45.00,Sunday
7,0.0
8,11.95
9,-2128.7009354195716
10,0.0
11,22.280467302089242
2,1, 1, 1, 0, 5,45.00,48.00,Sunday
7,0.0
8,11.899999999999999
9,-2129.400288947375
10,0.0
11,22.24576874503558
2,1, 1, 1, 0, 5,48.00,51.00,Sunday
7,0.0
8,11.849999999999998
9,-2130.103362377873
10,0.0
11,22.21101331645807
2,1, 1, 1, 0, 5,51.00,54.00,Sunday
7,0.0
8,11.799999999999999
9,-2130.809634017374
10,0.0
11,22.17620052055214
2,1, 1, 1, 0, 5,54.00,57.00,Sunday
7,0.0
8,11.749999999999998
9,-2131.518637177203
10,0.0
11,22.141329931188565
2,1, 1, 1, 0, 5,57.00,60.00,Sunday
7,0.0
8,11.7
9,-2132.2299529010306
10,0.0
11,22.10640118877217
2,1, 1, 1, 0, 6, 0.00, 3.00,Sunday
7,0.0
8,11.644999999999998
9,-2132.677044416131
10,0.0
11,22.071413996966864
2,1, 1, 1, 0, 6, 3.00, 6.00,Sunday
7,0.0
8,11.59
9,-2133.0807128826323
10,0.0
11,22.03636811930986
2,1, 1, 1, 0, 6, 6.00, 9.00,Sunday
7,0.0
8,11.534999999999998
9,-2133.455514654975
10,0.0
11,22.00126337574524
2,1, 1, 1, 0, 6, 9.00,12.00,Sunday
7,0.0
8,11.48
9,-2133.806176169696
10,0.0
11,21.96609963910947
2,1, 1, 1, 0, 6,12.00,15.00,Sunday
7,0.0
8,11.424999999999999
9,-2134.1359511932383
10,0.0
11,21.93087683159603
2,1, 1, 1, 0, 6,15.00,18.00,Sunday
7,0.0
8,11.37
9,-2134.447220922709
10,0.0
11,21.89559492120706
2,1, 1, 1, 0, 6,18.00,21.00,Sunday
7,0.0
8,11.315
9,-2134.7418086842144
10,0.0
11,21.860253918170557
2,1, 1, 1, 0, 6,21.00,24.00,Sunday
7,0.0
8,11.26
9,-2135.0211576335146
10,0.0
11,21.824853871277497
2,1, 1, 1, 0, 6,24.00,27.00,Sunday
7,0.0
8,11.205
9,-2135.2864393173363
10,0.0
11,21.789394864090394
2,1, 1, 1, 0, 6,27.00,30.00,Sunday
7,0.0
8,11.149999999999999
9,-2135.5386240976613
10,0.0
11,21.75387701099811
2,1, 1, 1, 0, 6,30.00,33.00,Sunday
7,0.0
8,11.094999999999999
9,-2135.7785290139855
10,0.0
11,21.718300453131697
2,1, 1, 1, 0, 6,33.00,36.00,Sunday
7,0.0
8,11.04
9,-2136.0068515356925
10,0.0
11,21.682665354197805
2,1, 1, 1, 0, 6,36.00,39.00,Sunday
7,0.0
8,10.985
9,-2136.224194088318
10,0.0
11,21.64697189631712
2,1, 1, 1, 0, 6,39.00,42.00,Sunday
7,22.10646184442475
8,10.93
9,-2206.8575162697016
10,15.474523291097325
11,21.611220275969412
2,1, 1, 1, 0, 6,42.00,45.00,Sunday
7,26.52037076088634
8,10.875
9,-2235.0412799874516
10,18.56425953262044
11,21.57541070014479
2,1, 1, 1, 0, 6,45.00,48.00,Sunday
7,30.33829043603043
8,10.82
9,-2259.377024499638
10,21.2368033052213
11,21.539543382806468
2,1, 1, 1, 0, 6,48.00,51.00,Sunday
7,33.79710130045705
8,10.765
9,-2282.46824403124
10,23.657970910319936
11,21.503618542078623
2,1, 1, 1, 0, 6,51.00,54.00,Sunday
7,37.04109061536964
8,10.709999999999999
9,-2304.8309314924654
10,25.92876343075875
11,21.467636400306947
2,1, 1, 1, 0, 6,54.00,57.00,Sunday
7,40.152782988622896
8,10.655
9,-2326.772609831911
10,28.10694809203603
11,21.43159719307807
2,1, 1, 1, 0, 6,57.00,60.00,Sunday
7,43.17905066662896
8,10.6
9,-2348.4780512537104
10,30.225335466640264
11,21.395501197090915
2,1, 1, 1, 0, 7, 0.00, 3.00,Sunday
7,46.14675988013707
8,10.719999999999999
9,-2335.5498539458613
10,32.30273191609595
11,21.359347837012443
2,1, 1, 1, 0, 7, 3.00, 6.00,Sunday
7,49.07144879034046
8,10.84
9,-2324.8573847710086
10,34.35001415323832
11,21.32313717496945
2,1, 1, 1, 0, 7, 6.00, 9.00,Sunday
7,51.19563413248703
8,10.959999999999999
9,-2313.2044095059878
10,35.83694389274092
11,21.28687002728532
2,1, 1, 1, 0, 7, 9.00,12.00,Sunday
7,52.14290010545256
8,11.08
9,-2298.649224345382
10,36.50003007381679
11,21.250547829996002
2,1, 1, 1, 0, 7,12.00,15.00,Sunday
7,53.297630489310954
8,11.2
9,-2284.878695506269
10,37.308341342517664
11,21.21417260085544
2,1, 1, 1, 0, 7,15.00,18.00,Sunday
7,54.603411390725086
8,11.319999999999999
9,-2272.037758646054
10,38.222387973507566
11,21.177747000315613
2,1, 1, 1, 0, 7,18.00,21.00,Sunday
7,56.02013466939326
8,11.44
9,-2260.075714095368
10,39.21409426857527
11,21.14127442415354
2,1, 1, 1, 0, 7,21.00,24.00,Sunday
7,57.51850948422795
8,11.559999999999999
9,-2248.9308840085723
10,40.262956638959565
11,21.104759084453523
2,1, 1, 1, 0, 7,24.00,27.00,Sunday
7,59.076652904203286
8,11.68
9,-2238.5402844760265
10,41.353657032942294
11,21.068206065644908
2,1, 1, 1, 0, 7,27.00,30.00,Sunday
7,60.677893843539735
8,11.8
9,-2228.843469786641
10,42.47452569047781
11,21.031621356911817
2,1, 1, 1, 0, 7,30.00,33.00,Sunday
7,68.25726949684223
8,11.92
9,-2238.9309045913337
10,47.780088647789555
11,20.995011865440816
2,1, 1, 1, 0, 7,33.00,36.00,Sunday
7,83.81988936131228
8,12.04
9,-2279.101454606319
10,58.67392255291859
11,20.958385413835497
2,1, 1, 1, 0, 7,36.00,39.00,Sunday
7,90.92365164065409
8,12.16
9,-2300.2056171823197
10,63.64655614845786
11,20.92175072364485
2,1, 1, 1, 0, 7,39.00,42.00,Sunday
7,97.80406506162969
8,12.28
9,-2321.1646089256456
10,68.46284554314076
11,20.88511738653459
2,1, 1, 1, 0, 7,42.00,45.00,Sunday
7,104.46817846347997
8,12.4
9,-2342.8146376934433
10,73.12772492443598
11,20.848495825428515
2,1, 1, 1, 0, 7,45.00,48.00,Sunday
7,110.9219691634299
8,12.52
9,-2365.0499005029437
10,77.64537841440094
11,20.811897250367213
2,1, 1, 1, 0, 7,48.00,51.00,Sunday
7,117.17054513751661
8,12.639999999999999
9,-2387.751612379911
10,82.01938159626162
11,20.775333617508082
2,1, 1, 1, 0, 7,51.00,54.00,Sunday
7,123.21830719590676
8,12.760000000000002
9,-2410.803761411209
10,86.25281503713472
11,20.73881760225926
2,1, 1, 1, 0, 7,54.00,57.00,Sunday
7,129.0690795097
8,12.88
9,-2434.098401954693
10,90.34835565679
11,20.70236259628722
2,1, 1, 1, 0, 7,57.00,60.00,Sunday
7,134.8361767502081
8,13.0
9,-2457.895503051316
10,94.38532372514567
11,20.665982732754085
2,1, 1, 1, 0, 8, 0.00, 3.00,Sunday
7,148.7235689663888
8,13.25
9,-2483.1382959151824
10,104.10649827647214
11,20.629693888903518
2,1, 1, 1, 0, 8, 3.00, 6.00,Sunday
7,153.93420567929553
8,13.500000000000002
9,-2487.879627582112
10,107.75394397550687
11,20.593512339075826
2,1, 1, 1, 0, 8, 6.00, 9.00,Sunday
7,158.95443679909977
8,13.749999999999998
9,-2491.6497853151095
10,111.26810575936983
11,20.557454827452773
2,1, 1, 1, 0, 8, 9.00,12.00,Sunday
7,163.78603711365935
8,14.0
9,-2495.5147702389077
10,114.65022597956154
11,20.521538900524426
2,1, 1, 1, 0, 8,12.00,15.00,Sunday
7,168.43066208692153
8,14.25
9,-2499.4630318385325
10,117.90146346084505
11,20.485783124340934
2,1, 1, 1, 0, 8,15.00,18.00,Sunday
7,172.88987383974833
8,14.5
9,-2503.4476263792894
10,121.02291168782382
11,20.450207168001864
2,1, 1, 1, 0, 8,18.00,21.00,Sunday
7,177.1651625503845
8,14.75
9,-2507.4084204739393
10,124.01561378526915
11,20.41483181554319
2,1, 1, 1, 0, 8,21.00,24.00,Sunday
7,181.25796417873642
8,15.0
9,-2511.2818446647366
10,126.8805749251155
11,20.379678952311934
2,1, 1, 1, 0, 8,24.00,27.00,Sunday
7,185.16967522006243
8,15.25
9,-2515.0049383679157
10,129.61877265404368
11,20.344771544808076
2,1, 1, 1, 0, 8,27.00,30.00,Sunday
7,188.9016650428081
8,15.5
9,-2518.5170619493183
10,132.23116552996566
11,20.3101336168807
2,1, 1, 1, 0, 8,30.00,33.00,Sunday
7,190.44027873873063
8,15.75
9,-2515.0138579904374
10,133.30819511711144
11,20.275790218883152
2,1, 1, 1, 0, 8,33.00,36.00,Sunday
7,191.85942186832608
8,16.0
9,-2510.002550188148
10,134.30159530782828
11,20.24176738523607
2,1, 1, 1, 0, 8,36.00,39.00,Sunday
7,193.15613073997162
8,16.25
9,-2503.9181552408463
10,135.20929151798015
11,20.208092076826954
2,1, 1, 1, 0, 8,39.00,42.00,Sunday
7,194.32795865609617
8,16.5
9,-2496.868859230357
10,136.0295710592673
11,20.17479210635567
2,1, 1, 1, 0, 8,42.00,45.00,Sunday
7,195.37291153970367
8,16.75
9,-2488.917743461622
10,136.76103807779256
11,20.14189604633983
2,1, 1, 1, 0, 8,45.00,48.00,Sunday
7,203.91891757895257
8,17.0
9,-2505.9226675292125
10,142.74324230526682
11,20.109433120515956
2,1, 1, 1, 0, 8,48.00,51.00,Sunday
7,204.61891624889293
8,17.25
9,-2501.1524195735988
10,143.23324137422506
11,20.077433079729133
2,1, 1, 1, 0, 8,51.00,54.00,Sunday
7,205.16582491433758
8,17.5
9,-2493.6614672157816
10,143.61607744003626
11,20.045926063498154
2,1, 1, 1, 0, 8,54.00,57.00,Sunday
7,205.56146725004362
8,17.75
9,-2484.6564502639594
10,143.89302707503052
11,20.014942448873427
2,1, 1, 1, 0, 8,57.00,60.00,Sunday
7,205.80761819002817
8,18.0
9,-2474.31055492524
10,144.06533273301972
11,19.984512689527442
2,1, 1, 1, 0, 9, 0.00, 3.00,Sunday
7,205.90602061604105
8,18.15
9,-2480.187132853646
10,144.13421443122874
11,19.95467973247864
2,1, 1, 1, 0, 9, 3.00, 6.00,Sunday
7,205.85839916262023
8,18.3
9,-2483.584851300892
10,144.1008794138342
11,19.92546949060575
2,1, 1, 1, 0, 9, 6.00, 9.00,Sunday
7,205.666471652284
8,18.45
9,-2485.003485719188
10,143.9665301565988
11,19.896906034477784
2,1, 1, 1, 0, 9, 9.00,12.00,Sunday
7,205.33195857625958
8,18.6
9,-2484.620309940163
10,143.73237100338173
11,19.869015450996276
2,1, 1, 1, 0, 9,12.00,15.00,Sunday
7,204.85659095805016
8,18.75
9,-2482.559594026656
10,143.3996136706351
11,19.841825182219026
2,1, 1, 1, 0, 9,15.00,18.00,Sunday
7,204.24211687475375
8,18.9
9,-2478.9133750209603
10,142.96948181232761
11,19.81536275448454
2,1, 1, 1, 0, 9,18.00,21.00,Sunday
7,203.49030686098004
8,19.05
9,-2473.7527372326326
10,142.44321480268601
11,19.78965500813143
2,1, 1, 1, 0, 9,21.00,24.00,Sunday
7,202.60295837989386
8,19.2
9,-2467.13437825123
10,141.82207086592567
11,19.764727776074974
2,1, 1, 1, 0, 9,24.00,27.00,Sunday
7,201.58189951331005
8,19.35
9,-2459.10472798645
10,141.107329659317
11,19.740605759068963
2,1, 1, 1, 0, 9,27.00,30.00,Sunday
7,200.42899199631202
8,19.5
9,-2449.7026824784416
10,140.3002943974184
11,19.717312443451227
2,1, 1, 1, 0, 9,30.00,33.00,Sunday
7,197.93774986712788
8,19.65
9,-2434.770577195184
10,138.55642490698952
11,19.694870010578235
2,1, 1, 1, 0, 9,33.00,36.00,Sunday
7,200.19598775463572
8,19.8
9,-2434.635425580279
10,140.137191428245
11,19.673299235935453
2,1, 1, 1, 0, 9,36.00,39.00,Sunday
7,197.4413807453273
8,19.95
9,-2419.0210651934276
10,138.2089665217291
11,19.652619387955447
2,1, 1, 1, 0, 9,39.00,42.00,Sunday
7,194.61992858828106
8,20.1
9,-2400.7630472255573
10,136.2339500117967
11,19.63284813502985
2,1, 1, 1, 0, 9,42.00,45.00,Sunday
7,191.73396060653982
8,20.25
9,-2380.732557445074
10,134.21377242457788
11,19.614001465637635
2,1, 1, 1, 0, 9,45.00,48.00,Sunday
7,188.78573339848342
8,20.4
9,-2359.136011462165
10,132.15001337893838
11,19.596093624196573
2,1, 1, 1, 0, 9,48.00,51.00,Sunday
7,185.7774412795513
8,20.549999999999997
9,-2336.1186053883653
10,130.0442088956859
11,19.579137064240808
2,1, 1, 1, 0, 9,51.00,54.00,Sunday
7,182.71122544115514
8,20.700000000000003
9,-2311.7903523412583
10,127.8978578088086
11,19.563142419931715
2,1, 1, 1, 0, 9,54.00,57.00,Sunday
7,179.5891819940442
8,20.85
9,-2286.2393373421096
10,125.71242739583094
11,19.54811849585458
2,1, 1, 1, 0, 9,57.00,60.00,Sunday
7,176.41336903973414
8,21.0
9,-2259.538887133411
10,123.4893583278139
11,19.534072273479524
2,1, 1, 1, 0,10, 0.00, 3.00,Sunday
7,173.18581289360102
8,21.15
9,-2236.999344948376
10,121.2300690255207
11,19.52100860092277
2,1, 1, 1, 0,10, 3.00, 6.00,Sunday
7,169.90851356625507
8,21.300000000000004
9,-2213.33603974773
10,118.93595949637854
11,19.50893076331458
2,1, 1, 1, 0,10, 6.00, 9.00,Sunday
7,166.58344959537803
8,21.449999999999996
9,-2188.6280946603274
10,116.60841471676461
11,19.497840494872076
2,1, 1, 1, 0,10, 9.00,12.00,Sunday
7,163.21258230790468
8,21.6
9,-2162.93027615335
10,114.24880761553328
11,19.48773790253506
2,1, 1, 1, 0,10,12.00,15.00,Sunday
7,159.79785958192187
8,21.75
9,-2136.290470856653
10,111.85850170734531
11,19.478621441036687
2,1, 1, 1, 0,10,15.00,18.00,Sunday
7,156.3412191686832
8,21.9
9,-2108.751645256666
10,109.43885341807825
11,19.470499189069248
2,1, 1, 1, 0,10,18.00,21.00,Sunday
7,152.8445916274268
8,22.049999999999997
9,-2080.353045007173
10,106.99121413919877
11,19.463358071759853
2,1, 1, 1, 0,10,21.00,24.00,Sunday
7,149.3099029190838
8,22.200000000000003
9,-2051.1309916375117
10,104.51693204335866
11,19.45718273746892
2,1, 1, 1, 0,10,24.00,27.00,Sunday
7,145.73907669928096
8,22.35
9,-2021.1194491596193
10,102.01735368949666
11,19.451960915736635
2,1, 1, 1, 0,10,27.00,30.00,Sunday
7,145.97194049427875
8,22.5
9,-2003.915262946687
10,102.1803583459951
11,19.447682292952823
2,1, 1, 1, 0,10,30.00,33.00,Sunday
7,146.13855211548722
8,22.65
9,-1988.4267911725415
10,102.29698648084104
11,19.444353127778616
2,1, 1, 1, 0,10,33.00,36.00,Sunday
7,146.3079302047519
8,22.799999999999997
9,-1974.093019536257
10,102.41555114332633
11,19.441962761544943
2,1, 1, 1, 0,10,36.00,39.00,Sunday
7,146.4800050934878
8,22.950000000000003
9,-1960.671509846266
10,102.53600356544146
11,19.440495573127148
2,1, 1, 1, 0,10,39.00,42.00,Sunday
7,146.65469839368822
8,23.099999999999998
9,-1947.9941248043392
10,102.65828887558175
11,19.439935551212123
2,1, 1, 1, 0,10,42.00,45.00,Sunday
7,146.83192360111758
8,23.25
9,-1935.9400568238427
10,102.7823465207823
11,19.440266885591914
2,1, 1, 1, 0,10,45.00,48.00,Sunday
7,147.01158667070996
8,23.400000000000002
9,-1924.4185494688481
10,102.90811066949699
11,19.441473501432345
2,1, 1, 1, 0,10,48.00,51.00,Sunday
7,147.1935865676679
8,23.549999999999997
9,-1913.3591628079469
10,103.03551059736752
11,19.44353869546964
2,1, 1, 1, 0,10,51.00,54.00,Sunday
7,147.37781579755472
8,23.700000000000003
9,-1902.7058439651462
10,103.1644710582883
11,19.446445051967807
2,1, 1, 1, 0,10,54.00,57.00,Sunday
7,147.5641609185116
8,23.849999999999998
9,-1892.4130956620204
10,103.29491264295808
11,19.45017452838354
2,1, 1, 1, 0,10,57.00,60.00,Sunday
7,147.75250303860352
8,24.0
9,-1882.4433839789656
10,103.42675212702248
11,19.45470860409046
2,1, 1, 1, 0,11, 0.00, 3.00,Sunday
7,152.40605388241775
8,24.109999999999996
9,-1895.1594200581949
10,106.6842377176924
11,19.46002829213417
2,1, 1, 1, 0,11, 3.00, 6.00,Sunday
7,152.52694954736214
8,24.220000000000002
9,-1894.3916670960245
10,106.7688646831535
11,19.46611448164314
2,1, 1, 1, 0,11, 6.00, 9.00,Sunday
7,152.64886989976736
8,24.33
9,-1892.5542425368985
10,106.85420892983714
11,19.472948114128158
2,1, 1, 1, 0,11, 9.00,12.00,Sunday
7,152.7717396181183
8,24.440000000000005
9,-1890.2728926354737
10,106.94021773268281
11,19.480510310411535
2,1, 1, 1, 0,11,12.00,15.00,Sunday
7,152.89547829830045
8,24.55
9,-1887.6814659374809
10,107.02683480881032
11,19.48878249166915
2,1, 1, 1, 0,11,15.00,18.00,Sunday
7,153.02000108527437
8,24.659999999999997
9,-1884.8616726511586
10,107.11400075969206
11,19.497746498977072
2,1, 1, 1, 0,11,18.00,21.00,Sunday
7,153.14521930552496
8,24.770000000000003
9,-1881.8672402955153
10,107.20165351386747
11,19.50738470535072
2,1, 1, 1, 0,11,21.00,24.00,Sunday
7,153.2710411045625
8,24.88
9,-1878.735589597786
10,107.28972877319374
11,19.517680114996388
2,1, 1, 1, 0,11,24.00,27.00,Sunday
7,153.39737209395844
8,24.990000000000002
9,-1875.493914202744
10,107.3781604657709
11,19.528616446530666
2,1, 1, 1, 0,11,27.00,30.00,Sunday
7,153.52411601266965
8,25.1
9,-1872.162627575524
10,107.46688120886876
11,19.54017819790871
2,1, 1, 1, 0,11,30.00,33.00,Sunday
7,153.0283291091329
8,25.21
9,-1866.509753040706
10,107.119830376393
11,19.552350691371608
2,1, 1, 1, 0,11,33.00,36.00,Sunday
7,152.53673954989247
8,25.32
9,-1860.391489930359
10,106.77571768492473
11,19.565120097614393
2,1, 1, 1, 0,11,36.00,39.00,Sunday
7,152.04936794173832
8,25.43
9,-1853.9479610783346
10,106.4345575592168
11,19.578473439662318
2,1, 1, 1, 0,11,39.00,42.00,Sunday
7,151.56622826681365
8,25.54
9,-1847.2376941687576
10,106.09635978676955
11,19.59239857828232
2,1, 1, 1, 0,11,42.00,45.00,Sunday
7,151.08732862591754
8,25.65
9,-1840.3029929933532
10,105.76113003814227
11,19.606884181759877
2,1, 1, 1, 0,11,45.00,48.00,Sunday
7,150.61267198270045
8,25.759999999999998
9,-1833.1762088670596
10,105.42887038789031
11,19.621919683308533
2,1, 1, 1, 0,11,48.00,51.00,Sunday
7,150.1422569134711
8,25.87
9,-1825.883082597467
10,105.09957983942977
11,19.637495229273046
2,1, 1, 1, 0,11,51.00,54.00,Sunday
7,150.38910671530658
8,25.979999999999997
9,-1821.0332830533798
10,105.27237470071461
11,19.65360162087201
2,1, 1, 1, 0,11,54.00,57.00,Sunday
7,150.12390348472812
8,26.089999999999996
9,-1814.658664511358
10,105.08673243930967
11,19.670230251778396
2,1, 1, 1, 0,11,57.00,60.00,Sunday
7,149.8524373097592
8,26.2
9,-1808.120947365504
10,104.89670611683147
11,19.687373043515226
2,1, 1, 1, 0,12, 0.00, 3.00,Sunday
7,149.57511197036058
8,26.24
9,-1817.520950217863
10,104.7025783792524
11,19.70502285126791
2,1, 1, 1, 0,12, 3.00, 6.00,Sunday
7,149.2923158417659
8,26.279999999999998
9,-1825.8294666544857
10,104.50462108923614
11,19.723172730032225
2,1, 1, 1, 0,12, 6.00, 9.00,Sunday
7,149.00442362857206
8,26.32
9,-1833.3587340201946
10,104.30309654000044
11,19.741815860672375
2,1, 1, 1, 0,12, 9.00,12.00,Sunday
7,148.711798115548
8,26.36
9,-1840.2322622097136
10,104.09825868088357
11,19.76094561266051
2,1, 1, 1, 0,12,12.00,15.00,Sunday
7,148.4147919449433
8,26.4
9,-1846.5374363879748
10,103.8903543614603
11,19.780555571749755
2,1, 1, 1, 0,12,15.00,18.00,Sunday
7,148.1137494296748
8,26.439999999999998
9,-1852.3401387071108
10,103.67962460077236
11,19.800639522498162
2,1, 1, 1, 0,12,18.00,21.00,Sunday
7,147.80900841100825
8,26.48
9,-1857.6923584940882
10,103.46630588770577
11,19.821191411213803
2,1, 1, 1, 0,12,21.00,24.00,Sunday
7,147.50090216806123
8,26.52
9,-1862.6365115190113
10,103.25063151764286
11,19.842205306390625
2,1, 1, 1, 0,12,24.00,27.00,Sunday
7,147.18976138438825
8,26.560000000000002
9,-1867.2080947299576
10,103.03283296907176
11,19.86367536148595
2,1, 1, 1, 0,12,27.00,30.00,Sunday
7,146.8759161737433
8,26.6
9,-1871.4374214272468
10,102.81314132162032
11,19.885595779113707
2,1, 1, 1, 0,12,30.00,33.00,Sunday
7,146.95961376160815
8,26.64
9,-1876.8120137002893
10,102.87172963312572
11,19.90796077494449
2,1, 1, 1, 0,12,33.00,36.00,Sunday
7,147.03040108248157
8,26.68
9,-1882.123801837884
10,102.9212807577371
11,19.93076454073345
2,1, 1, 1, 0,12,36.00,39.00,Sunday
7,147.08880357604585
8,26.72
9,-1887.3046167627065
10,102.9621625032321
11,19.954001207123092
2,1, 1, 1, 0,12,39.00,42.00,Sunday
7,147.135415496523
8,26.759999999999998
9,-1892.3375668502877
10,102.99479084756611
11,19.977664807591893
2,1, 1, 1, 0,12,42.00,45.00,Sunday
7,147.17090804188717
8,26.8
9,-1897.2147542881182
10,103.01963562932102
11,20.001762246007267
2,1, 1, 1, 0,12,45.00,48.00,Sunday
7,147.1960382736564
8,26.84
9,-1901.9335286365288
10,103.03722679155945
11,20.02628344718149
2,1, 1, 1, 0,12,48.00,51.00,Sunday
7,147.2116587942759
8,26.88
9,-1906.4946241821406
10,103.04816115599311
11,20.05121658368069
2,1, 1, 1, 0,12,51.00,54.00,Sunday
7,147.21872808771397
8,26.92
9,-1910.9011757769035
10,103.05310966139977
11,20.076552043578985
2,1, 1, 1, 0,12,54.00,57.00,Sunday
7,147.21832134030052
8,26.96
9,-1915.1581735179595
10,103.05282493821038
11,20.102281955658892
2,1, 1, 1, 0,12,57.00,60.00,Sunday
7,147.21164143540724
8,27.0
9,-1919.2721555420844
10,103.04814900478506
11,20.128399082949606
2,1, 1, 1, 0,13, 0.00, 3.00,Sunday
7,147.20002964941727
8,27.099999999999998
9,-1907.700471138884
10,103.04002075459209
11,20.154895484487376
2,1, 1, 1, 0,13, 3.00, 6.00,Sunday
7,147.18497536097686
8,27.200000000000003
9,-1896.900242014524
10,103.0294827526838
11,20.181763334625096
2,1, 1, 1, 0,13, 6.00, 9.00,Sunday
7,147.16812381819057