Program Version,EnergyPlus, Version 9.6.0-f420c06a69, YMD=2022.03.03 20:57
1,5,Environment Title[],Latitude[deg],Longitude[deg],Time Zone[],Elevation[m]
2,8,Day of Simulation[],Month[],Day of Month[],DST Indicator[1=yes 0=no],Hour[],StartMinute[],EndMinute[],DayType
3,5,Cumulative Day of Simulation[],Month[],Day of Month[],DST Indicator[1=yes 0=no],DayType  ! When Daily Report Variables Requested
4,2,Cumulative Days of Simulation[],Month[]  ! When Monthly Report Variables Requested
5,1,Cumulative Days of Simulation[] ! When Run Period Report Variables Requested
6,1,Calendar Year of Simulation[] ! When Annual Report Variables Requested
7,1,Environment,Site Diffuse Solar Radiation Rate per Area [W/m2] !TimeStep
8,1,Environment,Site Direct Solar Radiation Rate per Area [W/m2] !TimeStep
9,1,WALL EXTERIOR,Surface Outside Face Incident Solar Radiation Rate per Area [W/m2] !TimeStep
10,1,WALL EXTERIOR,Surface Outside Face Incident Beam Solar Radiation Rate per Area [W/m2] !TimeStep
11,1,WALL EXTERIOR,Surface Outside Face Incident Sky Diffuse Solar Radiation Rate per Area [W/m2] !TimeStep
12,1,WALL EXTERIOR,Surface Outside Face Beam Solar Incident Angle Cosine Value [] !TimeStep
13,1,WALL EXTERIOR,Surface Outside Face Incident Sky Diffuse Ground Reflected Solar Radiation Rate per Area [W/m2] !TimeStep
14,1,WALL EXTERIOR,Surface Outside Face Incident Beam To Diffuse Ground Reflected Solar Radiation Rate per Area [W/m2] !TimeStep
15,1,WALL EXTERIOR,Surface Outside Face Outdoor Air Drybulb Temperature [C] !TimeStep
16,1,WALL EXTERIOR,Surface Outside Face Net Thermal Radiation Heat Gain Rate [W] !TimeStep
17,1,WALL EXTERIOR,Surface Outside Face Solar Radiation Heat Gain Rate per Area [W/m2] !TimeStep
18,1,INTERIOR SPACE,Zone Mean Air Temperature [C] !TimeStep
End of Data Dictionary
1,RUN PERIOD 1, -33.38, -70.78,  -4.00, 476.00
2,1, 1, 1, 0, 1, 0.00, 3.00,Sunday
7,0.0
8,0.0
9,0.0
10,0.0
11,0.0
12,0.0
13,0.0
14,0.0
15,15.085
16,-2207.9353584033624
17,0.0
18,25.443430629092394
2,1, 1, 1, 0, 1, 3.00, 6.00,Sunday
7,0.0
8,0.0
9,0.0
10,0.0
11,0.0
12,0.0
13,0.0
14,0.0
15,15.17
16,-2179.483537815994
17,0.0
18,25.41432033112625
2,1, 1, 1, 0, 1, 6.00, 9.00,Sunday
7,0.0
8,0.0
9,0.0
10,0.0
11,0.0
12,0.0
13,0.0
14,0.0
15,15.254999999999999
16,-2152.2974076707974
17,0.0
18,25.384897064861367
2,1, 1, 1, 0, 1, 9.00,12.00,Sunday
7,0.0
8,0.0
9,0.0
10,0.0
11,0.0
12,0.0
13,0.0
14,0.0
15,15.34
16,-2126.166830283829
17,0.0
18,25.355169618640094
2,1, 1, 1, 0, 1,12.00,15.00,Sunday
7,0.0
8,0.0
9,0.0
10,0.0
11,0.0
12,0.0
13,0.0
14,0.0
15,15.425
16,-2100.944370483199
17,0.0
18,25.32514658744864
2,1, 1, 1, 0, 1,15.00,18.00,Sunday
7,0.0
8,0.0
9,0.0
10,0.0
11,0.0
12,0.0
13,0.0
14,0.0
15,15.51
16,-2076.5200584441714
17,0.0
18,25.294836331319072
2,1, 1, 1, 0, 1,18.00,21.00,Sunday
7,0.0
8,0.0
9,0.0
10,0.0
11,0.0
12,0.0
13,0.0
14,0.0
15,15.594999999999999
16,-2052.808115997262
17,0.0
18,25.264246979579713
2,1, 1, 1, 0, 1,21.00,24.00,Sunday
7,0.0
8,0.0
9,0.0
10,0.0
11,0.0
12,0.0
13,0.0
14,0.0
15,15.68
16,-2029.7394338757458
17,0.0
18,25.233386451895193
2,1, 1, 1, 0, 1,24.00,27.00,Sunday
7,0.0
8,0.0
9,0.0
10,0.0
11,0.0
12,0.0
13,0.0
14,0.0
15,15.765
16,-2007.2569545339338
17,0.0
18,25.202262487300302
2,1, 1, 1, 0, 1,27.00,30.00,Sunday
7,0.0
8,0.0
9,0.0
10,0.0
11,0.0
12,0.0
13,0.0
14,0.0
15,15.85
16,-1985.3126603794087
17,0.0
18,25.17088268166981
2,1, 1, 1, 0, 1,30.00,33.00,Sunday
7,0.0
8,0.0
9,0.0
10,0.0
11,0.0
12,0.0
13,0.0
14,0.0
15,15.934999999999999
16,-1963.8655139270456
17,0.0
18,25.139254534997924
2,1, 1, 1, 0, 1,33.00,36.00,Sunday
7,0.0
8,0.0
9,0.0
10,0.0
11,0.0
12,0.0
13,0.0
14,0.0
15,16.02
16,-1942.8799949389802
17,0.0
18,25.10738550776082
2,1, 1, 1, 0, 1,36.00,39.00,Sunday
7,0.0
8,0.0
9,0.0
10,0.0
11,0.0
12,0.0
13,0.0
14,0.0
15,16.105
16,-1922.3250292441408
17,0.0
18,25.075283083551472
2,1, 1, 1, 0, 1,39.00,42.00,Sunday
7,0.0
8,0.0
9,0.0
10,0.0
11,0.0
12,0.0
13,0.0
14,0.0
15,16.19
16,-1902.1731842165227
17,0.0
18,25.042954834081982
2,1, 1, 1, 0, 1,42.00,45.00,Sunday
7,0.0
8,0.0
9,0.0
10,0.0
11,0.0
12,0.0
13,0.0
14,0.0
15,16.275
16,-1882.400051474909
17,0.0
18,25.010408482509817
2,1, 1, 1, 0, 1,45.00,48.00,Sunday
7,0.0
8,0.0
9,0.0
10,0.0
11,0.0
12,0.0
13,0.0
14,0.0
15,16.36
16,-1862.9837645008101
17,0.0
18,24.977651961539436
2,1, 1, 1, 0, 1,48.00,51.00,Sunday
7,0.0
8,0.0
9,0.0
10,0.0
11,0.0
12,0.0
13,0.0
14,0.0
15,16.445
16,-1843.9046156778338
17,0.0
18,24.944693463567653
2,1, 1, 1, 0, 1,51.00,54.00,Sunday
7,0.0
8,0.0
9,0.0
10,0.0
11,0.0
12,0.0
13,0.0
14,0.0
15,16.529999999999998
16,-1825.1447480276588
17,0.0
18,24.911541481055313
2,1, 1, 1, 0, 1,54.00,57.00,Sunday
7,0.0
8,0.0
9,0.0
10,0.0
11,0.0
12,0.0
13,0.0
14,0.0
15,16.615
16,-1806.687904026306
17,0.0
18,24.878204836177353
2,1, 1, 1, 0, 1,57.00,60.00,Sunday
7,0.0
8,0.0
9,0.0
10,0.0
11,0.0
12,0.0
13,0.0
14,0.0
15,16.7
16,-1788.5192186977388
17,0.0
18,24.84469269954923
2,1, 1, 1, 0, 2, 0.00, 3.00,Sunday
7,0.0
8,0.0
9,0.0
10,0.0
11,0.0
12,0.0
13,0.0
14,0.0
15,16.619999999999997
16,-1807.829005395612
17,0.0
18,24.81101636984816
2,1, 1, 1, 0, 2, 3.00, 6.00,Sunday
7,0.0
8,0.0
9,0.0
10,0.0
11,0.0
12,0.0
13,0.0
14,0.0
15,16.54
16,-1825.1937411881072
17,0.0
18,24.777186664942377
2,1, 1, 1, 0, 2, 6.00, 9.00,Sunday
7,0.0
8,0.0
9,0.0
10,0.0
11,0.0
12,0.0
13,0.0
14,0.0
15,16.459999999999997
16,-1841.2920157566741
17,0.0
18,24.743213903111073
2,1, 1, 1, 0, 2, 9.00,12.00,Sunday
7,0.0
8,0.0
9,0.0
10,0.0
11,0.0
12,0.0
13,0.0
14,0.0
15,16.38
16,-1856.3695331934914
17,0.0
18,24.709108373559715
2,1, 1, 1, 0, 2,12.00,15.00,Sunday
7,0.0
8,0.0
9,0.0
10,0.0
11,0.0
12,0.0
13,0.0
14,0.0
15,16.299999999999997
16,-1870.5958466604302
17,0.0
18,24.67488062212998
2,1, 1, 1, 0, 2,15.00,18.00,Sunday
7,0.0
8,0.0
9,0.0
10,0.0
11,0.0
12,0.0
13,0.0
14,0.0
15,16.22
16,-1884.0953507168513
17,0.0
18,24.640541522019628
2,1, 1, 1, 0, 2,18.00,21.00,Sunday
7,0.0
8,0.0
9,0.0
10,0.0
11,0.0
12,0.0
13,0.0
14,0.0
15,16.14
16,-1896.9634311434345
17,0.0
18,24.606102237885118
2,1, 1, 1, 0, 2,21.00,24.00,Sunday
7,0.0
8,0.0
9,0.0
10,0.0
11,0.0
12,0.0
13,0.0
14,0.0
15,16.06
16,-1909.2756129092484
17,0.0
18,24.571574156746895
2,1, 1, 1, 0, 2,24.00,27.00,Sunday
7,0.0
8,0.0
9,0.0
10,0.0
11,0.0
12,0.0
13,0.0
14,0.0
15,15.98
16,-1921.0931660731517
17,0.0
18,24.536968810609356
2,1, 1, 1, 0, 2,27.00,30.00,Sunday
7,0.0
8,0.0
9,0.0
10,0.0
11,0.0
12,0.0
13,0.0
14,0.0
15,15.899999999999999
16,-1932.4667539443371
17,0.0
18,24.5022977924171
2,1, 1, 1, 0, 2,30.00,33.00,Sunday
7,0.0
8,0.0
9,0.0
10,0.0
11,0.0
12,0.0
13,0.0
14,0.0
15,15.819999999999999
16,-1943.4389207458105
17,0.0
18,24.467572662641594
2,1, 1, 1, 0, 2,33.00,36.00,Sunday
7,0.0
8,0.0
9,0.0
10,0.0
11,0.0
12,0.0
13,0.0
14,0.0
15,15.739999999999998
16,-1954.0458520633317
17,0.0
18,24.432804846566356
2,1, 1, 1, 0, 2,36.00,39.00,Sunday
7,0.0
8,0.0
9,0.0
10,0.0
11,0.0
12,0.0
13,0.0
14,0.0
15,15.66
16,-1964.3186587539615
17,0.0
18,24.398005525579933
2,1, 1, 1, 0, 2,39.00,42.00,Sunday
7,0.0
8,0.0
9,0.0
10,0.0
11,0.0
12,0.0
13,0.0
14,0.0
15,15.579999999999998
16,-1974.2843369414204
17,0.0
18,24.36318552748004
2,1, 1, 1, 0, 2,42.00,45.00,Sunday
7,0.0
8,0.0
9,0.0
10,0.0
11,0.0
12,0.0
13,0.0
14,0.0
15,15.5
16,-1983.9665010327517
17,0.0
18,24.32835522101226
2,1, 1, 1, 0, 2,45.00,48.00,Sunday
7,0.0
8,0.0
9,0.0
10,0.0
11,0.0
12,0.0
13,0.0
14,0.0
15,15.419999999999998
16,-1993.3859535366366
17,0.0
18,24.29352441918453
2,1, 1, 1, 0, 2,48.00,51.00,Sunday
7,0.0
8,0.0
9,0.0
10,0.0
11,0.0
12,0.0
13,0.0
14,0.0
15,15.34
16,-2002.5611349275032
17,0.0
18,24.258702294805758
2,1, 1, 1, 0, 2,51.00,54.00,Sunday
7,0.0
8,0.0
9,0.0
10,0.0
11,0.0
12,0.0
13,0.0
14,0.0
15,15.26
16,-2011.5084836415801
17,0.0
18,24.2238973105035
2,1, 1, 1, 0, 2,54.00,57.00,Sunday
7,0.0
8,0.0
9,0.0
10,0.0
11,0.0
12,0.0
13,0.0
14,0.0
15,15.18
16,-2020.2427276115443
17,0.0
18,24.189117164358304
2,1, 1, 1, 0, 2,57.00,60.00,Sunday
7,0.0
8,0.0
9,0.0
10,0.0
11,0.0
12,0.0
13,0.0
14,0.0
15,15.1
16,-2028.7771228720997
17,0.0
18,24.154368751340957
2,1, 1, 1, 0, 3, 0.00, 3.00,Sunday
7,0.0
8,0.0
9,0.0
10,0.0
11,0.0
12,0.0
13,0.0
14,0.0
15,15.034999999999998
16,-2032.5734385194542
17,0.0
18,24.11965723048877
2,1, 1, 1, 0, 3, 3.00, 6.00,Sunday
7,0.0
8,0.0
9,0.0
10,0.0
11,0.0
12,0.0
13,0.0
14,0.0
15,14.97
16,-2036.4178746337577
17,0.0
18,24.084987364505132
2,1, 1, 1, 0, 3, 6.00, 9.00,Sunday
7,0.0
8,0.0
9,0.0
10,0.0
11,0.0
12,0.0
13,0.0
14,0.0
15,14.905
16,-2040.2476683255263
17,0.0
18,24.050363522311144
2,1, 1, 1, 0, 3, 9.00,12.00,Sunday
7,0.0
8,0.0
9,0.0
10,0.0
11,0.0
12,0.0
13,0.0
14,0.0
15,14.84
16,-2044.0463457342448
17,0.0
18,24.01578943772272
2,1, 1, 1, 0, 3,12.00,15.00,Sunday
7,0.0
8,0.0
9,0.0
10,0.0
11,0.0
12,0.0
13,0.0
14,0.0
15,14.774999999999999
16,-2047.8043101270637
17,0.0
18,23.98126807197843
2,1, 1, 1, 0, 3,15.00,18.00,Sunday
7,0.0
8,0.0
9,0.0
10,0.0
11,0.0
12,0.0
13,0.0
14,0.0
15,14.709999999999997
16,-2051.5158502331333
17,0.0
18,23.946801592905736
2,1, 1, 1, 0, 3,18.00,21.00,Sunday
7,0.0
8,0.0
9,0.0
10,0.0
11,0.0
12,0.0
13,0.0
14,0.0
15,14.645
16,-2055.177600337072
17,0.0
18,23.91239141174455
2,1, 1, 1, 0, 3,21.00,24.00,Sunday
7,0.0
8,0.0
9,0.0
10,0.0
11,0.0
12,0.0
13,0.0
14,0.0
15,14.579999999999998
16,-2058.7876884777816
17,0.0
18,23.878038236910676
2,1, 1, 1, 0, 3,24.00,27.00,Sunday
7,0.0
8,0.0
9,0.0
10,0.0
11,0.0
12,0.0
13,0.0
14,0.0
15,14.515
16,-2062.3452294020126
17,0.0
18,23.84374212945856
2,1, 1, 1, 0, 3,27.00,30.00,Sunday
7,0.0
8,0.0
9,0.0
10,0.0
11,0.0
12,0.0
13,0.0
14,0.0
15,14.45
16,-2065.8500057441975
17,0.0
18,23.809502557791472
2,1, 1, 1, 0, 3,30.00,33.00,Sunday
7,0.0
8,0.0
9,0.0
10,0.0
11,0.0
12,0.0
13,0.0
14,0.0
15,14.385
16,-2069.3022590961427
17,0.0
18,23.775318452424386
2,1, 1, 1, 0, 3,33.00,36.00,Sunday
7,0.0
8,0.0
9,0.0
10,0.0
11,0.0
12,0.0
13,0.0
14,0.0
15,14.32
16,-2072.702548687188
17,0.0
18,23.74118826120432
2,1, 1, 1, 0, 3,36.00,39.00,Sunday
7,0.0
8,0.0
9,0.0
10,0.0
11,0.0
12,0.0
13,0.0
14,0.0
15,14.254999999999999
16,-2076.051653424325
17,0.0
18,23.707110004516366
2,1, 1, 1, 0, 3,39.00,42.00,Sunday
7,0.0
8,0.0
9,0.0
10,0.0
11,0.0
12,0.0
13,0.0
14,0.0
15,14.190000000000001
16,-2079.3505026810562
17,0.0
18,23.67308132956494
2,1, 1, 1, 0, 3,42.00,45.00,Sunday
7,0.0
8,0.0
9,0.0
10,0.0
11,0.0
12,0.0
13,0.0
14,0.0
15,14.125000000000002
16,-2082.60012667046
17,0.0
18,23.639099562786008
2,1, 1, 1, 0, 3,45.00,48.00,Sunday
7,0.0
8,0.0
9,0.0
10,0.0
11,0.0
12,0.0
13,0.0
14,0.0
15,14.06
16,-2085.80162045944
17,0.0
18,23.605161759605743
2,1, 1, 1, 0, 3,48.00,51.00,Sunday
7,0.0
8,0.0
9,0.0
10,0.0
11,0.0
12,0.0
13,0.0
14,0.0
15,13.995000000000001
16,-2088.9561176621087
17,0.0
18,23.57126475097252
2,1, 1, 1, 0, 3,51.00,54.00,Sunday
7,0.0
8,0.0
9,0.0
10,0.0
11,0.0
12,0.0
13,0.0
14,0.0
15,13.930000000000001
16,-2092.0647711073602
17,0.0
18,23.537405186290766
2,1, 1, 1, 0, 3,54.00,57.00,Sunday
7,0.0
8,0.0
9,0.0
10,0.0
11,0.0
12,0.0
13,0.0
14,0.0
15,13.865
16,-2095.12873859712
17,0.0
18,23.503579572559275
2,1, 1, 1, 0, 3,57.00,60.00,Sunday
7,0.0
8,0.0
9,0.0
10,0.0
11,0.0
12,0.0
13,0.0
14,0.0
15,13.8
16,-2098.1491724203242
17,0.0
18,23.469784309659662
2,1, 1, 1, 0, 4, 0.00, 3.00,Sunday
7,0.0
8,0.0
9,0.0
10,0.0
11,0.0
12,0.0
13,0.0
14,0.0
15,13.745
16,-2098.989252857296
17,0.0
18,23.43601572185341
2,1, 1, 1, 0, 4, 3.00, 6.00,Sunday
7,0.0
8,0.0
9,0.0
10,0.0
11,0.0
12,0.0
13,0.0
14,0.0
15,13.690000000000001
16,-2099.9228339028723
17,0.0
18,23.40227008563084
2,1, 1, 1, 0, 4, 6.00, 9.00,Sunday
7,0.0
8,0.0
9,0.0
10,0.0
11,0.0
12,0.0
13,0.0
14,0.0
15,13.635
16,-2100.9068416607665
17,0.0
18,23.368543654115328
2,1, 1, 1, 0, 4, 9.00,12.00,Sunday
7,0.0
8,0.0
9,0.0
10,0.0
11,0.0
12,0.0
13,0.0
14,0.0
15,13.580000000000002
16,-2101.927173565793
17,0.0
18,23.33483267826764
2,1, 1, 1, 0, 4,12.00,15.00,Sunday
7,0.0
8,0.0
9,0.0
10,0.0
11,0.0
12,0.0
13,0.0
14,0.0
15,13.525000000000002
16,-2102.974241559668
17,0.0
18,23.301133425175816
2,1, 1, 1, 0, 4,15.00,18.00,Sunday
7,0.0
8,0.0
9,0.0
10,0.0
11,0.0
12,0.0
13,0.0
14,0.0
15,13.469999999999999
16,-2104.0411415942044
17,0.0
18,23.26744219377689
2,1, 1, 1, 0, 4,18.00,21.00,Sunday
7,0.0
8,0.0
9,0.0
10,0.0
11,0.0
12,0.0
13,0.0
14,0.0
15,13.415
16,-2105.1226922074966
17,0.0
18,23.233755328433897
2,1, 1, 1, 0, 4,21.00,24.00,Sunday
7,0.0
8,0.0
9,0.0
10,0.0
11,0.0
12,0.0
13,0.0
14,0.0
15,13.36
16,-2106.2148893810995
17,0.0
18,23.20006923084354
2,1, 1, 1, 0, 4,24.00,27.00,Sunday
7,0.0
8,0.0
9,0.0
10,0.0
11,0.0
12,0.0
13,0.0
14,0.0
15,13.305
16,-2107.3145719805852
17,0.0
18,23.16638037073173
2,1, 1, 1, 0, 4,27.00,30.00,Sunday
7,0.0
8,0.0
9,0.0
10,0.0
11,0.0
12,0.0
13,0.0
14,0.0
15,13.25
16,-2108.4192036784084
17,0.0
18,23.132685295694706
2,1, 1, 1, 0, 4,30.00,33.00,Sunday
7,0.0
8,0.0
9,0.0
10,0.0
11,0.0
12,0.0
13,0.0
14,0.0
15,13.195
16,-2109.526724013264
17,0.0
18,23.09898064039319
2,1, 1, 1, 0, 4,33.00,36.00,Sunday
7,0.0
8,0.0
9,0.0
10,0.0
11,0.0
12,0.0
13,0.0
14,0.0
15,13.14
16,-2110.635442844503
17,0.0
18,23.06526313515154
2,1, 1, 1, 0, 4,36.00,39.00,Sunday
7,0.0
8,0.0
9,0.0
10,0.0
11,0.0
12,0.0
13,0.0
14,0.0
15,13.084999999999999
16,-2111.7439632971477
17,0.0
18,23.031529613892577
2,1, 1, 1, 0, 4,39.00,42.00,Sunday
7,0.0
8,0.0
9,0.0
10,0.0
11,0.0
12,0.0
13,0.0
14,0.0
15,13.03
16,-2112.851124111826
17,0.0
18,22.997777021269098
2,1, 1, 1, 0, 4,42.00,45.00,Sunday
7,0.0
8,0.0
9,0.0
10,0.0
11,0.0
12,0.0
13,0.0
14,0.0
15,12.974999999999998
16,-2113.9559556213026
17,0.0
18,22.96400241883499
2,1, 1, 1, 0, 4,45.00,48.00,Sunday
7,0.0
8,0.0
9,0.0
10,0.0
11,0.0
12,0.0
13,0.0
14,0.0
15,12.92
16,-2115.0576455448854
17,0.0
18,22.9302029901196
2,1, 1, 1, 0, 4,48.00,51.00,Sunday
7,0.0
8,0.0
9,0.0
10,0.0
11,0.0
12,0.0
13,0.0
14,0.0
15,12.865
16,-2116.1555120137928
17,0.0
18,22.89637604451258
2,1, 1, 1, 0, 4,51.00,54.00,Sunday
7,0.0
8,0.0
9,0.0
10,0.0
11,0.0
12,0.0
13,0.0
14,0.0
15,12.809999999999999
16,-2117.2489820240958
17,0.0
18,22.86251901991952
2,1, 1, 1, 0, 4,54.00,57.00,Sunday
7,0.0
8,0.0
9,0.0
10,0.0
11,0.0
12,0.0
13,0.0
14,0.0
15,12.755
16,-2118.3375740313327
17,0.0
18,22.828629484200086
2,1, 1, 1, 0, 4,57.00,60.00,Sunday
7,0.0
8,0.0
9,0.0
10,0.0
11,0.0
12,0.0
13,0.0
14,0.0
15,12.7
16,-2119.420883752004
17,0.0
18,22.794705135444442
2,1, 1, 1, 0, 5, 0.00, 3.00,Sunday
7,0.0
8,0.0
9,0.0
10,0.0
11,0.0
12,0.0
13,0.0
14,0.0
15,12.649999999999999
16,-2119.8766888664964
17,0.0
18,22.760743801177796
2,1, 1, 1, 0, 5, 3.00, 6.00,Sunday
7,0.0
8,0.0
9,0.0
10,0.0
11,0.0
12,0.0
13,0.0
14,0.0
15,12.6
16,-2120.3862573397523
17,0.0
18,22.72674343660578
2,1, 1, 1, 0, 5, 6.00, 9.00,Sunday
7,0.0
8,0.0
9,0.0
10,0.0
11,0.0
12,0.0
13,0.0
14,0.0
15,12.55
16,-2120.9296662883753
17,0.0
18,22.692702122026994
2,1, 1, 1, 0, 5, 9.00,12.00,Sunday
7,0.0
8,0.0
9,0.0
10,0.0
11,0.0
12,0.0
13,0.0
14,0.0
15,12.5
16,-2121.5000327345283
17,0.0
18,22.658618059545265
2,1, 1, 1, 0, 5,12.00,15.00,Sunday
7,0.0
8,0.0
9,0.0
10,0.0
11,0.0
12,0.0
13,0.0
14,0.0
15,12.45
16,-2122.092511246537
17,0.0
18,22.62448956922139
2,1, 1, 1, 0, 5,15.00,18.00,Sunday
7,0.0
8,0.0
9,0.0
10,0.0
11,0.0
12,0.0
13,0.0
14,0.0
15,12.399999999999999
16,-2122.7034829373715
17,0.0
18,22.590315084821572
2,1, 1, 1, 0, 5,18.00,21.00,Sunday
7,0.0
8,0.0
9,0.0
10,0.0
11,0.0
12,0.0
13,0.0
14,0.0
15,12.349999999999998
16,-2123.3301275937083
17,0.0
18,22.556093149345816
2,1, 1, 1, 0, 5,21.00,24.00,Sunday
7,0.0
8,0.0
9,0.0
10,0.0
11,0.0
12,0.0
13,0.0
14,0.0
15,12.299999999999999
16,-2123.970179857872
17,0.0
18,22.521822410535474
2,1, 1, 1, 0, 5,24.00,27.00,Sunday
7,0.0
8,0.0
9,0.0
10,0.0
11,0.0
12,0.0
13,0.0
14,0.0
15,12.25
16,-2124.621778650706
17,0.0
18,22.48750161654551
2,1, 1, 1, 0, 5,27.00,30.00,Sunday
7,0.0
8,0.0
9,0.0
10,0.0
11,0.0
12,0.0
13,0.0
14,0.0
15,12.2
16,-2125.2833682803725
17,0.0
18,22.453129611917973
2,1, 1, 1, 0, 5,30.00,33.00,Sunday
7,0.0
8,0.0
9,0.0
10,0.0
11,0.0
12,0.0
13,0.0
14,0.0
15,12.149999999999999
16,-2125.9536303168916
17,0.0
18,22.41870533392267
2,1, 1, 1, 0, 5,33.00,36.00,Sunday
7,0.0
8,0.0
9,0.0
10,0.0
11,0.0
12,0.0
13,0.0
14,0.0
15,12.1
16,-2126.63143484714
17,0.0
18,22.384227809259375
2,1, 1, 1, 0, 5,36.00,39.00,Sunday
7,0.0
8,0.0
9,0.0
10,0.0
11,0.0
12,0.0
13,0.0
14,0.0
15,12.049999999999999
16,-2127.3158045094788
17,0.0
18,22.34969615105981
2,1, 1, 1, 0, 5,39.00,42.00,Sunday
7,0.0
8,0.0
9,0.0
10,0.0
11,0.0
12,0.0
13,0.0
14,0.0
15,12.0
16,-2128.0058872769782
17,0.0
18,22.31510955609554
2,1, 1, 1, 0, 5,42.00,45.00,Sunday
7,0.0
8,0.0
9,0.0
10,0.0
11,0.0
12,0.0
13,0.0
14,0.0
15,11.95
16,-2128.7009354195716
17,0.0
18,22.280467302089242
2,1, 1, 1, 0, 5,45.00,48.00,Sunday
7,0.0
8,0.0
9,0.0
10,0.0
11,0.0
12,0.0
13,0.0
14,0.0
15,11.899999999999999
16,-2129.400288947375
17,0.0
18,22.24576874503558
2,1, 1, 1, 0, 5,48.00,51.00,Sunday
7,0.0
8,0.0
9,0.0
10,0.0
11,0.0
12,0.0
13,0.0
14,0.0
15,11.849999999999998
16,-2130.103362377873
17,0.0
18,22.21101331645807
2,1, 1, 1, 0, 5,51.00,54.00,Sunday
7,0.0
8,0.0
9,0.0
10,0.0
11,0.0
12,0.0
13,0.0
14,0.0
15,11.799999999999999
16,-2130.809634017374
17,0.0
18,22.17620052055214
2,1, 1, 1, 0, 5,54.00,57.00,Sunday
7,0.0
8,0.0
9,0.0
10,0.0
11,0.0
12,0.0
13,0.0
14,0.0
15,11.749999999999998
16,-2131.518637177203
17,0.0
18,22.141329931188565
2,1, 1, 1, 0, 5,57.00,60.00,Sunday
7,0.0
8,0.0
9,0.0
10,0.0
11,0.0
12,0.0
13,0.0
14,0.0
15,11.7
16,-2132.2299529010306
17,0.0
18,22.10640118877217
2,1, 1, 1, 0, 6, 0.00, 3.00,Sunday
7,0.0
8,0.0
9,0.0
10,0.0
11,0.0
12,0.0
13,0.0
14,0.0
15,11.644999999999998
16,-2132.677044416131
17,0.0
18,22.071413996966864
2,1, 1, 1, 0, 6, 3.00, 6.00,Sunday
7,0.0
8,0.0
9,0.0
10,0.0
11,0.0
12,0.0
13,0.0
14,0.0
15,11.59
16,-2133.0807128826323
17,0.0
18,22.03636811930986
2,1, 1, 1, 0, 6, 6.00, 9.00,Sunday
7,0.0
8,0.0
9,0.0
10,0.0
11,0.0
12,0.0
13,0.0
14,0.0
15,11.534999999999998
16,-2133.455514654975
17,0.0
18,22.00126337574524
2,1, 1, 1, 0, 6, 9.00,12.00,Sunday
7,0.0
8,0.0
9,0.0
10,0.0
11,0.0
12,0.0
13,0.0
14,0.0
15,11.48
16,-2133.806176169696
17,0.0
18,21.96609963910947
2,1, 1, 1, 0, 6,12.00,15.00,Sunday
7,0.0
8,0.0
9,0.0
10,0.0
11,0.0
12,0.0
13,0.0
14,0.0
15,11.424999999999999
16,-2134.1359511932383
17,0.0
18,21.93087683159603
2,1, 1, 1, 0, 6,15.00,18.00,Sunday
7,0.0
8,0.0
9,0.0
10,0.0
11,0.0
12,0.0
13,0.0
14,0.0
15,11.37
16,-2134.447220922709
17,0.0
18,21.89559492120706
2,1, 1, 1, 0, 6,18.00,21.00,Sunday
7,0.0
8,0.0
9,0.0
10,0.0
11,0.0
12,0.0
13,0.0
14,0.0
15,11.315
16,-2134.7418086842144
17,0.0
18,21.860253918170557
2,1, 1, 1, 0, 6,21.00,24.00,Sunday
7,0.0
8,0.0
9,0.0
10,0.0
11,0.0
12,0.0
13,0.0
14,0.0
15,11.26
16,-2135.0211576335146
17,0.0
18,21.824853871277497
2,1, 1, 1, 0, 6,24.00,27.00,Sunday
7,0.0
8,0.0
9,0.0
10,0.0
11,0.0
12,0.0
13,0.0
14,0.0
15,11.205
16,-2135.2864393173363
17,0.0
18,21.789394864090394
2,1, 1, 1, 0, 6,27.00,30.00,Sunday
7,0.0
8,0.0
9,0.0
10,0.0
11,0.0
12,0.0
13,0.0
14,0.0
15,11.149999999999999
16,-2135.5386240976613
17,0.0
18,21.75387701099811
2,1, 1, 1, 0, 6,30.00,33.00,Sunday
7,0.0
8,0.0
9,0.0
10,0.0
11,0.0
12,0.0
13,0.0
14,0.0
15,11.094999999999999
16,-2135.7785290139855
17,0.0
18,21.718300453131697
2,1, 1, 1, 0, 6,33.00,36.00,Sunday
7,0.0
8,0.0
9,0.0
10,0.0
11,0.0
12,0.0
13,0.0
14,0.0
15,11.04
16,-2136.0068515356925
17,0.0
18,21.682665354197805
2,1, 1, 1, 0, 6,36.00,39.00,Sunday
7,0.0
8,0.0
9,0.0
10,0.0
11,0.0
12,0.0
13,0.0
14,0.0
15,10.985
16,-2136.224194088318
17,0.0
18,21.64697189631712
2,1, 1, 1, 0, 6,39.00,42.00,Sunday
7,14.599999999999998
8,8.799999999999997
9,22.10646184442475
10,4.117923664428663
11,16.526307953959005
12,0.4679458709578028
13,1.46
14,0.0022302260370825095
15,10.93
16,-2206.8575162697016
17,15.474523291097325
18,21.611220275969412
2,1, 1, 1, 0, 6,42.00,45.00,Sunday
7,17.5
8,11.0
9,26.52037076088634
10,5.077260530825691
11,19.679677089060558
12,0.4615691391659719
13,1.75
14,0.013433141000092
15,10.875
16,-2235.0412799874516
17,18.56425953262044
18,21.57541070014479
2,1, 1, 1, 0, 6,45.00,48.00,Sunday
7,20.400000000000006
8,13.200000000000003
9,30.33829043603043
10,6.008233985832065
11,22.261116207272448
12,0.45516924135091386
13,2.0400000000000005
14,0.028940242925920935
15,10.82
16,-2259.377024499638
17,21.2368033052213
18,21.539543382806468
2,1, 1, 1, 0, 6,48.00,51.00,Sunday
7,23.300000000000004
8,15.400000000000004
9,33.79710130045705
10,6.910708021173458
11,24.507621288520898
12,0.4487472741021725
13,2.3300000000000005
14,0.04877199076269557
15,10.765
16,-2282.46824403124
17,23.657970910319936
18,21.503618542078623
2,1, 1, 1, 0, 6,51.00,54.00,Sunday
7,26.200000000000003
8,17.6
9,37.04109061536964
10,7.784556345117647
11,26.563586901292148
12,0.4423043377907753
13,2.6200000000000006
14,0.07294736895984906
15,10.709999999999999
16,-2304.8309314924654
17,25.92876343075875
18,21.467636400306947
2,1, 1, 1, 0, 6,54.00,57.00,Sunday
7,29.099999999999994
8,19.799999999999997
9,40.152782988622896
10,8.629662420337684
11,28.511636686511352
12,0.43584153638069123
13,2.9099999999999997
14,0.10148388177386986
15,10.655
16,-2326.772609831911
17,28.10694809203603
18,21.43159719307807
2,1, 1, 1, 0, 6,57.00,60.00,Sunday
7,32.0
8,22.0
9,43.17905066662896
10,9.445919499272767
11,30.398733619402414
12,0.42935997723967123
13,3.2
14,0.13439754795377148
15,10.6
16,-2348.4780512537104
17,30.225335466640264
18,21.395501197090915
2,1, 1, 1, 0, 7, 0.00, 3.00,Sunday
7,34.900000000000006
8,24.200000000000003
9,46.14675988013707
10,10.233230656978069
11,32.25182632735141
12,0.42286077094950697
13,3.4900000000000007
14,0.17170289580759335
15,10.719999999999999
16,-2335.5498539458613
17,32.30273191609595
18,21.359347837012443
2,1, 1, 1, 0, 7, 3.00, 6.00,Sunday
7,37.800000000000004
8,26.4
9,49.07144879034046
10,10.991508821455485
11,34.08652701023383
12,0.41634503111573806
13,3.7800000000000007
14,0.21341295865115031
15,10.84
16,-2324.8573847710086
17,34.35001415323832
18,21.32313717496945
2,1, 1, 1, 0, 7, 6.00, 9.00,Sunday
7,40.69999999999999
8,28.599999999999994
9,51.19563413248703
10,11.72067680145768
11,35.14541806038919
12,0.409813874176842
13,4.069999999999999
14,0.25953927064016374
15,10.959999999999999
16,-2313.2044095059878
17,35.83694389274092
18,21.28687002728532
2,1, 1, 1, 0, 7, 9.00,12.00,Sunday
7,43.599999999999994
8,30.799999999999997
9,52.14290010545256
10,12.420667311758486
11,35.05214093070725
12,0.4032684192129379
13,4.359999999999999
14,0.3100918629868217
15,11.08
16,-2298.649224345382
17,36.50003007381679
18,21.250547829996002
2,1, 1, 1, 0, 7,12.00,15.00,Sunday
7,46.5
8,33.0
9,53.297630489310954
10,13.09142299588324
11,35.191128232865985
12,0.3967097877540376
13,4.65
14,0.36507926056172924
15,11.2
16,-2284.878695506269
17,37.308341342517664
18,21.21417260085544
2,1, 1, 1, 0, 7,15.00,18.00,Sunday
7,49.400000000000006
8,35.2
9,54.603411390725086
10,13.732896446293305
11,35.506006465549675
12,0.39013910358787796
13,4.940000000000001
14,0.42450847888210996
15,11.319999999999999
16,-2272.037758646054
17,38.222387973507566
18,21.177747000315613
2,1, 1, 1, 0, 7,18.00,21.00,Sunday
7,52.300000000000004
8,37.4
9,56.02013466939326
10,14.345050222019427
11,35.95669942588678
12,0.3835574925673644
13,5.23
14,0.48838502148704505
15,11.44
16,-2260.075714095368
17,39.21409426857527
18,21.14127442415354
2,1, 1, 1, 0, 7,21.00,24.00,Sunday
7,55.199999999999996
8,39.6
9,57.51850948422795
10,14.927856863739459
11,36.51393974278804
12,0.3769660824176631
13,5.52
14,0.5567128777004529
15,11.559999999999999
16,-2248.9308840085723
17,40.262956638959565
18,21.104759084453523
2,1, 1, 1, 0, 7,24.00,27.00,Sunday
7,58.099999999999994
8,41.8
9,59.076652904203286
10,15.481298906296187
11,37.1558594771247
12,0.37036600254297103
13,5.81
14,0.6294945207823908
15,11.68
16,-2238.5402844760265
17,41.353657032942294
18,21.068206065644908
2,1, 1, 1, 0, 7,27.00,30.00,Sunday
7,61.0
8,44.0
9,60.677893843539735
10,16.005368888651866
11,37.86579404841864
12,0.36375838383299697
13,6.1000000000000005
14,0.7067309064692234
15,11.8
16,-2228.843469786641
17,42.47452569047781
18,21.031621356911817
2,1, 1, 1, 0, 7,30.00,33.00,Sunday
7,65.7
8,57.250000000000014
9,68.25726949684223
10,20.44651452236119
11,40.26376083451457
12,0.357144358469191
13,6.57
14,0.9769941399664654
15,11.92
16,-2238.9309045913337
17,47.780088647789555
18,20.995011865440816
2,1, 1, 1, 0, 7,33.00,36.00,Sunday
7,70.39999999999999
8,70.5
9,83.81988936131228
10,24.712016711017874
11,50.79397241240111
12,0.35052505973075
13,7.039999999999999
14,1.273900237893291
15,12.04
16,-2279.101454606319
17,58.67392255291859
18,20.958385413835497
2,1, 1, 1, 0, 7,36.00,39.00,Sunday
7,75.10000000000001
8,83.75
9,90.92365164065409
10,28.801760825786545
11,53.01442528393404
12,0.3439016218004364
13,7.510000000000002
14,1.597465530933504
15,12.16
16,-2300.2056171823197
17,63.64655614845786
18,20.92175072364485
2,1, 1, 1, 0, 7,39.00,42.00,Sunday
7,79.8
8,96.99999999999999
9,97.80406506162969
10,32.71569241831349
11,55.16067542211363
12,0.3372751795702422
13,7.98
14,1.9476972212025565
15,12.28
16,-2321.1646089256456
17,68.46284554314076
18,20.88511738653459
2,1, 1, 1, 0, 7,42.00,45.00,Sunday
7,84.5
8,110.25
9,104.46817846347997
10,36.453817246274106
11,57.23976783853172
12,0.33064686844693064
13,8.450000000000001
14,2.324593378674156
15,12.4
16,-2342.8146376934433
17,73.12772492443598
18,20.848495825428515
2,1, 1, 1, 0, 7,45.00,48.00,Sunday
7,89.2
8,123.50000000000001
9,110.9219691634299
10,40.016201283450016
11,59.25762494002643
12,0.32401782415749
13,8.92
14,2.7281429399534636
15,12.52
16,-2365.0499005029437
17,77.64537841440094
18,20.811897250367213
2,1, 1, 1, 0, 7,48.00,51.00,Sunday
7,93.9
8,136.75000000000003
9,117.17054513751661
10,43.40297071433234
11,61.21924871378691
12,0.3173891825545326
13,9.39
14,3.1583257093973547
15,12.639999999999999
16,-2387.751612379911
17,82.01938159626162
18,20.775333617508082
2,1, 1, 1, 0, 7,51.00,54.00,Sunday
7,98.6
8,150.0
9,123.21830719590676
10,46.614311913250944
11,63.12888292007412
12,0.31076207942167294
13,9.86
14,3.6151123625816917
15,12.760000000000002
16,-2410.803761411209
17,86.25281503713472
18,20.73881760225926
2,1, 1, 1, 0, 7,54.00,57.00,Sunday
7,103.30000000000001
8,163.25
9,129.0690795097
10,49.650471408033106
11,64.9901436495519
12,0.3041376502789164
13,10.330000000000002
14,4.098464452115001
15,12.88
16,-2434.098401954693
17,90.34835565679
18,20.70236259628722
2,1, 1, 1, 0, 7,57.00,60.00,Sunday
7,108.0
8,176.5
9,134.8361767502081
10,52.5117558281986
11,66.91608650621204
12,0.29751703018809406
13,10.8
14,4.6083344157974615
15,13.0
16,-2457.895503051316
17,94.38532372514567
18,20.665982732754085
2,1, 1, 1, 0, 8, 0.00, 3.00,Sunday
7,112.69999999999999
8,189.75
9,148.7235689663888
10,55.19853183770176
11,77.11037154156354
12,0.29090135355837554
13,11.27
14,5.144665587123473
15,13.25
16,-2483.1382959151824
17,104.10649827647214
18,20.629693888903518
2,1, 1, 1, 0, 8, 3.00, 6.00,Sunday
7,117.4
8,203.0
9,153.93420567929553
10,57.71122605223433
11,78.77558741893556
12,0.28429175395189327
13,11.740000000000002
14,5.707392208125643
15,13.500000000000002
16,-2487.879627582112
17,107.75394397550687
18,20.593512339075826
2,1, 1, 1, 0, 8, 6.00, 9.00,Sunday
7,122.1
8,216.24999999999997
9,158.95443679909977
10,60.050324941107334
11,80.39767241343496
12,0.2776893638895137
13,12.21
14,6.296439444557479
15,13.749999999999998
16,-2491.6497853151095
17,111.26810575936983
18,20.557454827452773
2,1, 1, 1, 0, 8, 9.00,12.00,Sunday
7,126.80000000000001
8,229.5
9,163.78603711365935
10,62.21637471373219
11,81.97793899651572
12,0.27109531465678516
13,12.680000000000001
14,6.911723403411428
15,14.0
16,-2495.5147702389077
17,114.65022597956154
18,20.521538900524426
2,1, 1, 1, 0, 8,12.00,15.00,Sunday
7,131.5
8,242.75
9,168.43066208692153
10,64.20998119072605
11,83.5175297434269
12,0.264510736110097
13,13.15
14,7.55315115276856
15,14.25
16,-2499.4630318385325
17,117.90146346084505
18,20.485783124340934
2,1, 1, 1, 0, 8,15.00,18.00,Sunday
7,136.2
8,256.0
9,172.88987383974833
10,66.03180965967002
11,85.01744343610281
12,0.257936756483086
13,13.62
14,8.220620743975514
15,14.5
16,-2503.4476263792894
17,121.02291168782382
18,20.450207168001864
2,1, 1, 1, 0, 8,18.00,21.00,Sunday
7,140.9
8,269.25
9,177.1651625503845
10,67.6825847155509
11,86.47855659868985
12,0.25137450219331814
13,14.090000000000002
14,8.914021236143757
15,14.75
16,-2507.4084204739393
17,124.01561378526915
18,20.41483181554319
2,1, 1, 1, 0, 8,21.00,24.00,Sunday
7,145.6
8,282.5
9,181.25796417873642
10,69.16309008592252
11,87.90164136984802
12,0.24482509764928326
13,14.56
14,9.6332327229659
15,15.0
16,-2511.2818446647366
17,126.8805749251155
18,20.379678952311934
2,1, 1, 1, 0, 8,24.00,27.00,Sunday
7,150.3
8,295.75
9,185.16967522006243
10,70.47416844082477
11,89.2873804173946
12,0.2382896650577338
13,15.030000000000001
14,10.378126361843046
15,15.25
16,-2515.0049383679157
17,129.61877265404368
18,20.344771544808076
2,1, 1, 1, 0, 8,27.00,30.00,Sunday
7,155.0
8,309.0
9,188.9016650428081
10,71.61672118750255
11,90.63637944998887
12,0.23176932423139984
13,15.5
14,11.148564405316694
15,15.5
16,-2518.5170619493183
17,132.23116552996566
18,20.3101336168807
2,1, 1, 1, 0, 8,30.00,33.00,Sunday
7,156.0
8,323.55000000000007
9,190.44027873873063
10,72.8845530000866
11,89.96314018094351
12,0.22526519239711507
13,15.600000000000001
14,11.992585557700512
15,15.75
16,-2515.0138579904374
17,133.30819511711144
18,20.275790218883152
2,1, 1, 1, 0, 8,33.00,36.00,Sunday
7,157.0
8,338.1
9,191.85942186832608
10,73.96897163188285
11,89.32604413842031
12,0.21877838400438582
13,15.700000000000001
14,12.864406098022933
15,16.0
16,-2510.002550188148
17,134.30159530782828
18,20.24176738523607
2,1, 1, 1, 0, 8,36.00,39.00,Sunday
7,158.0
8,352.65
9,193.15613073997162
10,74.87112521496888
11,88.72115475551259
12,0.2123100105344361
13,15.8
14,13.76385076949014
15,16.25
16,-2503.9181552408463
17,135.20929151798015
18,20.208092076826954
2,1, 1, 1, 0, 8,39.00,42.00,Sunday
7,159.0
8,367.2
9,194.32795865609617
10,75.59222540974413
11,88.14499856103953
12,0.20586118030976072
13,15.9
14,14.690734685312513
15,16.5
16,-2496.868859230357
17,136.0295710592673
18,20.17479210635567
2,1, 1, 1, 0, 8,42.00,45.00,Sunday
7,160.0
8,381.75
9,195.37291153970367
10,76.133547102636
11,87.59450106219322
12,0.19943299830422004
13,16.0
14,15.64486337487447
15,16.75
16,-2488.917743461622